<?xml version="1.0"?>
<VTKFile type="UnstructuredGrid"  version="0.1"  >
<UnstructuredGrid>
<Piece  NumberOfPoints="1697" NumberOfCells="3185">
<Points>
<DataArray  type="Float64"  NumberOfComponents="3"  format="ascii">-1 1 0  -1 -1 0  1 -1 0  1 1 0  -0.4845491502812526 -0.4524471741852423 0  -0.45 -0.5 0  -0.4845491502812526 -0.5475528258147577 0  -0.5404508497187474 -0.5293892626146236 0  -0.5404508497187474 -0.4706107373853763 0  -0.4845491502812526 -0.2024471741852423 0  -0.45 -0.25 0  -0.4845491502812526 -0.2975528258147577 0  -0.5404508497187474 -0.2793892626146237 0  -0.5404508497187474 -0.2206107373853763 0  -0.4845491502812526 0.04755282581475768 0  -0.45 0 0  -0.4845491502812526 -0.04755282581475768 0  -0.5404508497187474 -0.02938926261462365 0  -0.5404508497187474 0.02938926261462366 0  -0.4845491502812526 0.2975528258147577 0  -0.45 0.25 0  -0.4845491502812526 0.2024471741852423 0  -0.5404508497187474 0.2206107373853763 0  -0.5404508497187474 0.2793892626146237 0  -0.4845491502812526 0.5475528258147577 0  -0.45 0.5 0  -0.4845491502812526 0.4524471741852423 0  -0.5404508497187474 0.4706107373853763 0  -0.5404508497187474 0.5293892626146237 0  -0.2345491502812526 -0.4524471741852423 0  -0.2 -0.5 0  -0.2345491502812526 -0.5475528258147577 0  -0.2904508497187474 -0.5293892626146236 0  -0.2904508497187474 -0.4706107373853763 0  -0.2345491502812526 -0.2024471741852423 0  -0.2 -0.25 0  -0.2345491502812526 -0.2975528258147577 0  -0.2904508497187474 -0.2793892626146237 0  -0.2904508497187474 -0.2206107373853763 0  -0.2345491502812526 0.04755282581475768 0  -0.2 0 0  -0.2345491502812526 -0.04755282581475768 0  -0.2904508497187474 -0.02938926261462365 0  -0.2904508497187474 0.02938926261462366 0  -0.2345491502812526 0.2975528258147577 0  -0.2 0.25 0  -0.2345491502812526 0.2024471741852423 0  -0.2904508497187474 0.2206107373853763 0  -0.2904508497187474 0.2793892626146237 0  -0.2345491502812526 0.5475528258147577 0  -0.2 0.5 0  -0.2345491502812526 0.4524471741852423 0  -0.2904508497187474 0.4706107373853763 0  -0.2904508497187474 0.5293892626146237 0  0.01545084971874737 -0.4524471741852423 0  0.05 -0.5 0  0.01545084971874736 -0.5475528258147577 0  -0.04045084971874738 -0.5293892626146236 0  -0.04045084971874737 -0.4706107373853763 0  0.01545084971874737 -0.2024471741852423 0  0.05 -0.25 0  0.01545084971874736 -0.2975528258147577 0  -0.04045084971874738 -0.2793892626146237 0  -0.04045084971874737 -0.2206107373853763 0  0.01545084971874737 0.04755282581475768 0  0.05 0 0  0.01545084971874736 -0.04755282581475768 0  -0.04045084971874738 -0.02938926261462365 0  -0.04045084971874737 0.02938926261462366 0  0.01545084971874737 0.2975528258147577 0  0.05 0.25 0  0.01545084971874736 0.2024471741852423 0  -0.04045084971874738 0.2206107373853763 0  -0.04045084971874737 0.2793892626146237 0  0.01545084971874737 0.5475528258147577 0  0.05 0.5 0  0.01545084971874736 0.4524471741852423 0  -0.04045084971874738 0.4706107373853763 0  -0.04045084971874737 0.5293892626146237 0  0.2654508497187474 -0.4524471741852423 0  0.3 -0.5 0  0.2654508497187474 -0.5475528258147577 0  0.2095491502812526 -0.5293892626146236 0  0.2095491502812526 -0.4706107373853763 0  0.2654508497187474 -0.2024471741852423 0  0.3 -0.25 0  0.2654508497187474 -0.2975528258147577 0  0.2095491502812526 -0.2793892626146237 0  0.2095491502812526 -0.2206107373853763 0  0.2654508497187474 0.04755282581475768 0  0.3 0 0  0.2654508497187474 -0.04755282581475768 0  0.2095491502812526 -0.02938926261462365 0  0.2095491502812526 0.02938926261462366 0  0.2654508497187474 0.2975528258147577 0  0.3 0.25 0  0.2654508497187474 0.2024471741852423 0  0.2095491502812526 0.2206107373853763 0  0.2095491502812526 0.2793892626146237 0  0.2654508497187474 0.5475528258147577 0  0.3 0.5 0  0.2654508497187474 0.4524471741852423 0  0.2095491502812526 0.4706107373853763 0  0.2095491502812526 0.5293892626146237 0  0.5154508497187473 -0.4524471741852423 0  0.55 -0.5 0  0.5154508497187473 -0.5475528258147577 0  0.4595491502812526 -0.5293892626146236 0  0.4595491502812526 -0.4706107373853763 0  0.5154508497187473 -0.2024471741852423 0  0.55 -0.25 0  0.5154508497187473 -0.2975528258147577 0  0.4595491502812526 -0.2793892626146237 0  0.4595491502812526 -0.2206107373853763 0  0.5154508497187473 0.04755282581475768 0  0.55 0 0  0.5154508497187473 -0.04755282581475768 0  0.4595491502812526 -0.02938926261462365 0  0.4595491502812526 0.02938926261462366 0  0.5154508497187473 0.2975528258147577 0  0.55 0.25 0  0.5154508497187473 0.2024471741852423 0  0.4595491502812526 0.2206107373853763 0  0.4595491502812526 0.2793892626146237 0  0.5154508497187473 0.5475528258147577 0  0.55 0.5 0  0.5154508497187473 0.4524471741852423 0  0.4595491502812526 0.4706107373853763 0  0.4595491502812526 0.5293892626146237 0  0 -1 0  0 1 0  -1 0 0  1 0 0  -0.5 -1 0  0.5 -1 0  0.5 1 0  -0.5 1 0  -1 0.5 0  -1 -0.5 0  1 0.5 0  1 -0.5 0  0.75 1 0  0.75 -1 0  -0.75 -1 0  -0.75 1 0  1 0.75 0  1 -0.75 0  -1 0.75 0  -1 -0.75 0  -1 0.25 0  -1 -0.25 0  0.7256198388257307 0.7256198388257307 0  0.7453946423333999 -0.67828964379988 0  0.25 1 0  0.25 -1 0  -0.25 1 0  -0.25 -1 0  -0.625 -0.7737004194389338 0  -0.7278875935065009 0.7278875935065009 0  1 -0.25 0  1 0.25 0  0.775 -0.375 0  0.775 0.125 0  -0.7772797158885885 -0.1249999999999999 0  -0.7772797158885885 0.3750000000000001 0  -0.1155633277264888 -0.7728893002237165 0  -0.1250000000000001 0.7777812822926077 0  0.1344366722735111 0.7728893002237165 0  0.3844366722735112 -0.7728893002237165 0  -0.3702786155901915 -0.7752093775138915 0  0.7666666666666667 -0.125 0  -0.7834069641667528 0.125 0  0.1344366722735112 -0.7678910408969545 0  0.3879538042834859 0.7725869888502724 0  -0.8038509136782469 -0.625 0  -0.7728883702176058 -0.37593939518075 0  -0.3784105622639777 0.7776648132593066 0  0.775 0.5060227682181899 0  0.5876748634960541 -0.8124303462603101 0  0.7336174356161639 0.315511384109095 0  -0.8184652097249939 -0.8184652097249939 0  -0.8194380804763362 0.5608011163094264 0  0.5674100427050702 0.8254780918431053 0  -0.625 0.8732031009639194 0  -0.5512443662310716 0.7119005195757399 0  0.8378542053874748 -0.8378542053874749 0  -0.8545494469578457 0.8545494469578457 0  0.8526093676032165 0.8526093676032165 0  0.8712331418772549 0.6430129604893485 0  1 0.375 0  0.833974174463331 -0.5338464859660043 0  -0.6850218426172008 0.5 0  0.6945725947074726 -0.4952306704734505 0  0.660023771418354 0.5955189173041552 0  0.509060446470311 0.6925671542633773 0  -0.6914499989956079 0.2478213137168841 0  -0.690029708580175 0 0  -0.6541329048014202 -0.6268327409683795 0  -0.6889298975269046 -0.25 0  -0.682506977327601 -0.4867110910123004 0  0.7035153330221471 0.8658571788795568 0  0.5997614032689388 -0.6668493137440092 0  0.8741237265339007 0.3124999999999999 0  -0.8674550130261415 0.6957352246778228 0  1 -0.625 0  -0.3034502268555682 0.6645028832516651 0  0.6405082226263823 0.147914800727488 0  0.6405082226263823 -0.352085199272512 0  -0.0531714890734958 0.663645016568592 0  0.01105664209312042 -0.8514168697421619 0  0.125 -1 0  -0.4971769030378819 -0.6963981374106645 0  0.375 1 0  0.261288919294947 0.8512986774842696 0  -0.6365237130479338 -0.125 0  -0.3732228789578184 -0.6383815409183573 0  -0.243558679710161 -0.7040370204514725 0  -0.2437547561852737 -0.8520843370808057 0  -0.125 -1 0  -0.1248192804350153 -0.6366991205263148 0  0.007951090481013626 -0.6960852128051734 0  -0.6367598341049638 0.1242200221161379 0  0.8512878787878788 -0.2473181818181818 0  1 -0.375 0  1 -0.125 0  0.8833333333333333 -0.0625 0  0.8737240818019414 -0.7104993406525161 0  -0.4985825830201349 0.833493808194586 0  0.2578193624891051 -0.8512838216633608 0  0.375 -1 0  0.125 1 0  0.006131596072746389 0.850284759528403 0  -0.6387471854763561 0.3726491651187555 0  0.6291206866529625 -0.125 0  0.6978936766598146 0.002431321889117266 0  0.1266222473824345 -0.6343513568522487 0  0.19825924800424 0.6592416606184183 0  0.4678519367432554 -0.67063315862519 0  0.6355445589956561 0.401521113449924 0  0.1205973102417347 0.375 0  -0.3794026897582654 0.375 0  -0.1294026897582653 0.375 0  -0.1294026897582653 -0.125 0  -0.1294026897582654 -0.375 0  -0.1294026897582654 0.125 0  -0.3794026897582653 -0.375 0  -0.3794026897582653 -0.125 0  -0.3794026897582653 0.125 0  0.1205973102417347 0.125 0  0.1205973102417346 -0.375 0  0.1205973102417347 -0.125 0  0.3705973102417347 -0.375 0  0.3705973102417347 -0.125 0  0.3705973102417346 0.125 0  0.3705973102417347 0.375 0  0.7200432662827286 -0.2476847227674805 0  -0.8525378974937107 -0.2518251111082633 0  -1 -0.125 0  -1 -0.375 0  -0.375 -1 0  -0.4980943854118284 -0.8512747932579724 0  -0.625 -1 0  -0.8569612962718638 -0.4919425679000594 0  -0.7026692212363415 -0.8784712606739514 0  0.889091130059066 0.184635965893681 0  -0.375 1 0  -0.2517397663660383 0.8527552026980977 0  -0.125 1 0  -0.875 -1 0  -1 -0.875 0  0.2609638483380458 -0.6940047749308199 0  0.3263645195771269 0.6602538012220225 0  -0.8545834347314745 0.2518195499697786 0  -1 0.375 0  -0.8545834347314745 -0.001819549969778534 0  -0.8822625939705945 0.448862768352607 0  0.4706212686596729 -0.8719920620005428 0  0.4375 0.8894846585601234 0  -0.4301392123566252 0.6619904508294419 0  0.07257825215069968 0.6634060119964835 0  0.7079669642029152 -0.8723519838005515 0  -0.6232276314699776 -0.375 0  -0.6481626305148857 0.6249085626062638 0  -0.1783267147697568 0.6594477984634857 0  -1 0.125 0  0.625 1 0  -0.875 1 0  1 -0.875 0  0.875 -1 0  -0.625 1 0  -1 -0.625 0  -1 0.625 0  -1 0.875 0  1 0.625 0  1 0.875 0  0.875 1 0  1 0.125 0  0.625 -1 0  0.8922864170173187 0.0609264660121161 0  0.3577831944833711 -0.6236764193645388 0  -0.7301219383292911 -0.7182293095003727 0  -0.8835971930600337 -0.7162605775530604 0  0.1454383658865696 -0.8845846373936055 0  -0.7381803928199459 0.8442566476444008 0  0.8875 -0.4236034362335045 0  0.1150722305308439 0.8858360900624094 0  -0.09887924205396464 -0.8873339417245941 0  -0.8864715590505128 -0.3820877222968134 0  0.
[...]
<PointData  Scalars="u"> 
<DataArray  type="Float64"  Name="u"  format="ascii">0.0000000000000000e+00  1.3887943864964021e-11  1.3887943864964021e-11  0.0000000000000000e+00  4.6521866231708159e-01  4.7667551513754103e-01  3.8160057898961913e-01  3.1634672232607780e-01  3.6292137217614540e-01  5.3019664050015414e-01  5.7570268380723200e-01  5.0226448831488224e-01  4.0997418723286061e-01  4.2599208059062649e-01  5.1086568644973462e-01  5.8042060599496659e-01  5.3178669278925295e-01  4.2973569155557345e-01  4.1848278070213835e-01  4.1530095355653218e-01  4.9790546422179321e-01  4.8055489962284548e-01  3.8249729353292505e-01  3.4711139722439976e-01  2.5656163308106622e-01  3.4095630490252621e-01  3.5763321797962083e-01  2.7943644294320935e-01  2.2467002050363610e-01  6.6638561831491472e-01  6.5593205069289173e-01  5.7445568004233194e-01  5.3316957405407128e-01  5.9099120754708068e-01  7.3828281170477339e-01  7.5604415259501645e-01  7.0617088353346569e-01  6.5546261711395082e-01  6.7535792021726515e-01  7.0575996419889131e-01  7.5404938925286513e-01  7.3808853370335692e-01  6.7700584911205752e-01  6.5825456270298011e-01  5.7038090337744940e-01  6.4450834077482411e-01  6.6378369906382073e-01  5.9916185501639363e-01  5.4414089054928649e-01  3.4813257359604388e-01  4.3827290896083820e-01  4.9144911258097473e-01  4.3170833970117928e-01  3.4728193765409976e-01  7.3235064998971144e-01  6.8875702697983643e-01  6.5081887944491557e-01  6.6432077118933541e-01  7.1513338056112796e-01  8.0220232517476942e-01  7.8546624659286957e-01  7.7139493878756660e-01  7.7624454616912508e-01  7.9545373336453373e-01  7.6454760047143733e-01  7.8166485280035591e-01  8.0072329061163372e-01  7.9311530729909574e-01  7.7074577654076759e-01  6.1702063739796220e-01  6.6764680538221455e-01  7.1905441857275720e-01  6.9936137309838131e-01  6.3603421791773840e-01  3.7563866563140452e-01  4.5412012699832571e-01  5.3211876044410922e-01  5.0280326983697365e-01  4.0519369347315093e-01  6.3423979135989450e-01  5.5224352242623809e-01  5.4166023567095578e-01  6.1801039042293926e-01  6.7402836045026715e-01  7.0685792082331866e-01  6.5579058793433487e-01  6.7488748027171519e-01  7.3682856228532878e-01  7.5656350806850170e-01  6.7634804605318488e-01  6.5832353622101847e-01  7.0754559404924033e-01  7.5527745272024671e-01  7.3484181882107746e-01  5.4690237820215648e-01  5.6404315211166400e-01  6.3718537111423434e-01  6.6614402891337943e-01  6.0727074514400559e-01  3.3338840478620851e-01  3.8471841527671247e-01  4.7261435658907325e-01  4.7827573580112553e-01  3.8770875878288791e-01  4.1616681286607871e-01  3.2586829401956169e-01  3.3699944886495570e-01  4.3512650173925677e-01  4.8877333306686910e-01  4.7504014804036943e-01  4.0134202629417426e-01  4.4849894390872869e-01  5.5023829543693992e-01  5.6841300055750588e-01  4.5790731907469429e-01  4.0741635864140807e-01  4.7716032239658407e-01  5.7116121929828823e-01  5.5729014993288595e-01  3.7174860105018309e-01  3.5094226243779031e-01  4.3279231009947333e-01  5.0577347961796348e-01  4.6283030809892189e-01  2.2962481471729493e-01  2.4282086845313944e-01  3.2326477970000733e-01  3.6431803126100687e-01  2.9848560022271087e-01  1.0000000000000000e+00  0.0000000000000000e+00  0.0000000000000000e+00  0.0000000000000000e+00  1.9304541362277093e-03  1.9304541362277093e-03  0.0000000000000000e+00  0.0000000000000000e+00  0.0000000000000000e+00  0.0000000000000000e+00  0.0000000000000000e+00  0.0000000000000000e+00  0.0000000000000000e+00  7.8114894083044910e-07  7.8114894083044910e-07  0.0000000000000000e+00  0.0000000000000000e+00  0.0000000000000000e+00  0.0000000000000000e+00  0.0000000000000000e+00  0.0000000000000000e+00  0.0000000000000000e+00  8.0150424009104937e-02  1.2706152282643954e-01  0.0000000000000000e+00  2.0961138715109781e-01  0.0000000000000000e+00  2.0961138715109781e-01  1.4687697220038570e-01  7.8831648129069565e-02  0.0000000000000000e+00  0.0000000000000000e+00  1.7889723393100709e-01  1.8761038708993139e-01  1.9740423735339557e-01  1.4624749994950603e-01  5.4274935935987889e-01  1.7203436015967141e-01  1.7536846338606737e-01  2.9913006947661336e-01  3.0897311472377825e-01  2.0725044868289724e-01  1.8033978251939758e-01  5.2896636136225783e-01  1.4212567806745180e-01  1.0915936524806871e-01  1.8052447002312683e-01  1.4053217798853740e-01  1.1872507300415912e-01  1.4098597341950175e-01  1.8996012554742661e-01  5.3231878336154864e-02  8.4595119369131708e-02  7.9280461830039284e-02  5.0059619704219585e-02  1.3707278066164311e-01  4.2500198912807007e-02  2.2486929664227235e-02  2.3089691886923936e-02  4.8999126394608156e-02  0.0000000000000000e+00  1.0838065588547333e-01  1.6986505068407590e-01  2.1761789055530223e-01  1.4722348951665956e-01  1.6016050168381935e-01  2.3829188625575415e-01  2.7675751858083630e-01  2.0026732486689292e-01  2.7268564028244896e-01  2.2962400246076808e-01  4.2090034627248113e-02  2.1780167810679621e-01  8.8356319099769112e-02  4.2982125019482488e-02  0.0000000000000000e+00  2.3684933630761024e-01  3.0587770297420797e-01  3.0289633168078073e-01  2.7350801716339912e-01  6.3306620236799471e-01  6.7663384616172895e-01  2.7119100461266127e-01  0.0000000000000000e+00  1.0479589711985873e-01  3.3493193332684446e-01  4.0520148162087660e-01  4.6411370070106811e-01  3.8546437860313576e-01  6.7663384616172895e-01  5.7264578305265845e-01  5.8306254133339408e-01  3.1396266737537160e-01  1.2626553987709879e-01  0.0000000000000000e+00  0.0000000000000000e+00  1.0178273992420422e-01  5.5870661439472148e-02  8.6779541724756132e-02  3.6715327870387676e-01  2.9729216386158750e-02  0.0000000000000000e+00  1.1704528646744732e-01  2.4526775016894842e-01  3.4266299697978597e-01  2.6908643694748763e-01  5.7301900192530308e-01  2.6272611486981884e-01  3.1000321884540327e-01  2.3775338583675129e-01  5.4506595833950611e-01  4.3876185668684481e-01  5.4337160228699155e-01  7.5751075974001525e-01  7.0857830315972004e-01  7.0155496455146182e-01  5.5614100620195051e-01  6.0635436242614782e-01  5.6458139661127438e-01  7.0378702931031700e-01  7.1114758194755601e-01  7.5999098171048807e-01  5.6282902235354759e-01  6.1321135172608643e-01  5.7086271022171808e-01  4.4358069603864952e-01  2.4374533493656692e-01  1.2494248342842749e-01  0.0000000000000000e+00  0.0000000000000000e+00  2.9729216386158750e-02  1.5469035256911648e-01  5.7390888739468748e-05  9.8805988571782633e-02  6.2597717626736257e-02  8.7582692273606710e-02  0.0000000000000000e+00  1.0454254008318031e-01  0.0000000000000000e+00  4.8677939021081986e-09  0.0000000000000000e+00  4.5594065855997279e-01  2.3480986348944916e-01  1.0892332146108746e-01  0.0000000000000000e+00  1.2606066375068242e-01  6.8332229654602963e-02  1.5025461818547844e-01  6.3392938728820167e-02  2.0457857634792992e-01  2.7302753184116307e-01  6.4247889146403656e-02  3.1469531522520416e-01  1.4101373566657527e-01  2.6594177010289527e-01  0.0000000000000000e+00  0.0000000000000000e+00  0.0000000000000000e+00  0.0000000000000000e+00  4.8677939021081986e-09  0.0000000000000000e+00  0.0000000000000000e+00  0.0000000000000000e+00  0.0000000000000000e+00  0.0000000000000000e+00  0.0000000000000000e+00  0.0000000000000000e+00  0.0000000000000000e+00  5.7390888739468748e-05  9.1179404106969592e-02  4.2696852907881933e-01  1.2114553064229007e-01  5.0528512502879055e-02  5.3086728975028119e-01  4.3243606390762850e-02  8.3889000882960696e-02  8.7130845713209545e-02  6.0443742809423617e-01  8.8067933995091094e-02  6.7144541117423864e-02  2.2016908209956390e-01  9.6876415847207575e-02  6.7078079116487485e-02  8.3797159013478242e-02  1.1228335077426246e-01  8.9981938529591021e-02  9.4504479059836360e-02  2.2044767005243635e-01  4.5310427067425496e-02  1.4083099691278411e-01  1.8471777801030370e-01  7.9790259697762475e-02  1.5082915259053525e-01  1.7620282158079795e-01  4.6153131480923919e-02  1.8029665943569448e-01  2.2623403672652959e-01  7.4081676651196887e-02  6.7495180600745053e-02  2.0230253910371307e-01  1.2582050465174149e-01  5.4310461523339328e-02  2.4374134122773694e-01  7.0775341164508343e-02  1.9141763189829281e-01  2.6919936196952549e-01  8.5123769649597586e-02  2.3713667480935112e-02  2.9978330095938404e-02  1.3396278936748180e-02  2.8781346079071674e-01  8.1972643622593877e-02  3.6950875952441876e-02  3.5631601925708450e-01  4.4341818614463219e-01  4.1466480820331114e-01  3.2384380729083867e-01  9.9687960464059533e-02  1.2457398913569481e-01  1.7276527119659632e-01  4.4975471048472787e-01  3.5703580071513746e-01  5.6797035782490034e-02  7.1393171165638125e-01  5.9710219369684424e-02  4.3652666820725369e-02  1.0656953331806807e-01  2.9391844913245341e-01  4.8115109726840292e-02  2.1444540115445004e-01  1.0789091229939163e-01  1.4129261359908504e-01  2.6910216348392357e-02  2.2147351439453011e-02  1.3707389372161803e-02  1.5318110891301456e-01  5.4651623214213546e-02  1.7980713846896826e-01  5.9490707286901617e-02  5.9654442940042324e-02  3.9864275515247447e-02  1.3148652363774849e-02  1.9918194604625454e-02  1.7271014006831631e-01  1.3044536246032721e-02  1.3004665565216299e-02  4.6239734572060411e-02  2.0912470953757884e-02  8.8510859110259590e-02  3.9852287743318844e-02  4.5290067348171217e-02  7.1348302046550282e-03  6.8749777748181888e-03  5.7350056295243000e-02  2.2857224793989367e-01  1.6858350652846177e-01  0.0000000000000000e+00  2.9184497867945486e-01  3.3640363341011348e-01  2.9751660289599297e-01  2.8662241835176960e-01  2.1124807508694851e-01  3.2952042215595051e-01  1.1462080730833356e-01  1.6096530635902237e-01  5.7631207385478798e-02  2.4789834937417408e-02  2.5816920028699575e-01  6.0548168508215849e-01  7.3881410270453765e-02  4.8176836680138568e-01  8.7038367656223511e-02  2.0161333030810133e-01  6.7427660109499543e-01  6.8004268367220366e-01  7.2046152759775517e-01  7.3189270074332879e-01  4.9037542227566727e-01  5.2083697491579373e-01  7.2753367440593042e-01  7.8064190596169114e-01  5.6261350395397036e-01  4.9709230286488348e-01  6.2513479881425005e-01  6.7803886960611692e-01  6.3151871942737081e-01  3.8712843366688726e-01  4.8577487962315063e-01  5.3548237280319777e-01  5.3454186748806298e-01  4.9703803421944234e-02  1.9944576141158596e-01  1.7717273061922717e-01  2.3965641602638679e-01  2.4692068667975500e-01  8.6430943672685792e-02  3.8628592152771890e-01  6.0748002773861809e-01  5.9228064678340675e-01  6.0758437773305940e-01  5.8658446398836839e-01  3.8632750640357277e-01  5.3837803984627230e-01  4.9126259162448876e-01  6.0985411463036066e-01  5.9260202633685999e-01  4.7430912465315933e-01  5.2456257200584910e-01  5.3845164094510645e-01  4.9427629596430095e-01  6.0996707754377677e-01  5.9635549500885643e-01  4.6625021028566560e-01  5.2517882423883744e-01  4.7578575081349533e-01  7.3764366756918420e-01  7.5624331166785763e-01  6.1060638027642555e-01  6.6606936717585685e-01  7.4171456512511003e-01  7.5979165071857335e-01  6.5954248018031181e-01  4.7573394999856800e-01  7.3761303007884904e-01  7.5829577148796679e-01  6.1057600518778687e-01  6.6784420148591173e-01  6.2718815586994969e-01  7.4167028094013809e-01  7.5833563437785190e-01  6.7844384218542908e-01  2.6418950195062318e-01  5.6679908206627355e-02  7.8117344211874634e-02  2.6585396432974878e-01  1.8174723643026622e-01  1.7506365535182181e-01  5.0029141562757129e-01  5.3642846830604274e-01  3.8938440602281627e-01  1.8355590998480104e-01  1.2125357811458456e-01  2.6883142914934666e-01  3.8466333185139251e-01  3.9740355581692033e-01  5.3116979501675254e-01  1.0844947806768618e-01  6.2489737717493643e-01  4.8891897789372341e-01  7.2964028693656235e-01  7.2247809609952651e-01  6.7870713208072375e-01  6.2928349660442695e-01  5.6018003407309280e-01  6.7719000633430471e-01  6.7912116850212978e-02  4.0318961719221419e-01  2.4762668626529719e-01  4.8978790472369671e-01  1.8008511765139149e-01  3.7589045714228808e-01  4.5942818974160832e-01  5.2722843457697866e-01  6.7560305016280664e-01  7.2980861290226184e-01  7.7967495517062635e-01  5.1649169962391239e-01  4.1523682868184131e-01  0.0000000000000000e+00  5.7852233145176768e-01  5.8102307093440941e-01  5.7133168480696694e-01  1.8211933352694012e-01  1.4648299244682841e-01  3.0307944485795807e-01  4.3704393309140754e-01  2.4340052499832465e-01  1.9495906201943297e-01  3.2568177832015144e-01  2.1074410435919325e-01  0.0000000000000000e+00  5.0004988482570539e-02  2.4235947038047043e-01  2.6130077773783089e-01  3.3454144916687339e-01  3.9087537143353684e-01  3.0288247694448128e-01  1.2043876756822289e-01  2.0418816407429116e-01  1.7292014459215846e-01  8.8664536054587517e-02  6.3214356955923631e-02  2.3680441209597025e-01  0.0000000000000000e+00  5.3408468797064249e-02  0.0000000000000000e+00  3.3967746968441509e-01  3.4798359692915226e-01  9.8264748348946135e-02  5.0278153881002235e-02  2.6772690882245853e-01  3.5087966143745647e-01  3.4496244990781055e-01  4.9784438049378937e-01  4.7857983062378956e-01  1.2002181288926618e-01  2.9357813758096211e-02  9.8166899232726659e-02  7.3652827065453685e-01  1.3942562999151292e-01  1.4818295277216750e-01  2.5292428185432031e-01  3.8131670838309928e-02  3.5031243066032408e-01  6.2391386552743698e-02  7.8524669723448806e-02  1.3548864321344889e-01  1.4983127928316678e-01  6.2764893444945749e-02  6.0234684685942674e-01  5.8366171429672442e-01  3.8420745750254243e-01  3.8515064542227351e-01  0.0000000000000000e+00  1.2419988984552296e-01  1.8442319522438491e-01  2.2913680038124323e-01  0.0000000000000000e+00  1.8699041059796240e-01  1.4357648265737727e-01  1.3811464192690243e-01  1.0935256162558192e-01  5.3162783439807926e-01  2.7524254790500968e-01  1.6999201401057576e-01  1.1003608752917492e-01  1.9106438263996398e-01  1.2895993678999992e-01  5.6428885587250610e-01  5.2733458415564392e-02  1.1982103892987445e-01  3.9599066139893585e-01  1.1734117600282175e-01  2.0594768251815371e-01  1.6229469985630501e-01  3.0961562140856275e-01  4.0453101521209671e-02  1.7864088409222256e-01  4.8460769704064199e-01  2.3959848842475287e-01  6.7833950490121786e-01  2.2096383192633201e-01  9.2698424093880349e-02  1.3238236208804136e-01  1.0406963658753958e-01  6.3112919760132766e-02  2.0264689582508807e-02  5.8891719711645897e-02  2.9920200117092238e-01  1.6087513584444929e-01  3.8651095975297189e-01  6.4839424099402965e-02  5.9641729765667550e-01  5.4466096033896641e-02  4.8024712508046852e-01  1.8893289168292399e-01  0.0000000000000000e+00  5.0183101794953798e-02  4.5504818015203070e-02  1.3868238137503314e-01  1.3468120428834693e-01  3.9103072097414114e-02  6.5135538362248530e-02  1.9688394976870036e-01  2.0924006286439825e-01  2.3030093573680299e-01  1.5686120730438616e-01  5.8736778604531947e-01  1.5166234118550520e-01  6.1803287895777426e-01  3.4045986737851675e-01  3.2809140043182328e-01  3.5086083830273557e-01  2.9207953216501790e-02  0.0000000000000000e+00  2.8504197298940931e-01  2.8843134450376051e-01  2.9907261626304538e-01  1.2658727770910160e-02  8.1161800386088764e-02  1.9425234309348133e-02  1.2355299367130025e-01  3.1128210000120410e-01  3.3735338427658074e-01  2.4090898820295079e-01  4.8310212042594475e-02  3.0179500656427327e-02  9.3361183454319915e-02  1.4410623820055457e-01  1.0074591767613560e-01  2.4104279593854902e-01  0.0000000000000000e+00  1.0057395019226788e-01  1.3487310961237384e-01  2.1151748625009725e-01  1.1163430345016050e-01  3.6699723279729379e-04  6.3007407999441989e-02  0.0000000000000000e+00  1.2130827389359423e-01  5.4817621886980319e-02  9.1268186483697028e-02  2.5478875448673097e-02  0.0000000000000000e+00  2.5793175726629541e-01  1.9747584183560576e-01  0.0000000000000000e+00  3.9119036114255579e-01  1.8550073068116296e-01  7.6133290519227653e-02  1.3396406346493170e-01  2.2459538845310503e-01  0.0000000000000000e+00  1.6937794945354445e-01  1.9198587142396520e-01  1.4573432143260451e-01  2.9282927873288228e-01  7.0692526001330225e-01  2.5367253296414777e-01  2.9196757877764237e-02  2.1348949011935581e-01  2.7989748250861790e-01  3.2593540587762121e-01  1.6170653175433772e-01  1.4071797422608953e-01  2.8667949968731180e-10  0.0000000000000000e+00  7.3824407433342391e-06  2.2715058129630775e-02  0.0000000000000000e+00  6.7298625272051799e-02  3.2494661227555488e-01  3.0409276393806739e-01  4.2532245029927709e-02  8.8708606866345255e-02  1.3435341393753633e-01  3.5136370830086548e-02  2.8667949968731180e-10  0.0000000000000000e+00  1.4320788039794111e-01  3.6244124504228079e-02  6.8198933273653034e-02  9.8587920090261544e-02  0.0000000000000000e+00  2.9935751589511929e-02  2.5745809511282119e-01  1.5737810294605747e-01  2.1223607631636682e-01  2.6402710124627443e-01  3.9398020398942207e-01  3.1241257357780317e-02  3.6523591126210168e-02  2.8556846552613818e-01  2.6238964012621942e-02  2.4000402264769941e-01  6.0023359335694457e-02  1.2655621962592842e-01  2.1617697485320939e-01  2.3326661962290865e-01  2.0072260174400267e-01  5.9119852592883985e-02  0.0000000000000000e+00  6.0718874298885639e-01  2.9079440153342184e-01  3.5196066394023573e-01  1.4331290601176144e-02  0.0000000000000000e+00  5.6045316122309355e-02  2.3709936335689526e-02  0.0000000000000000e+00  0.0000000000000000e+00  8.7038367656223511e-02  8.3528185180810136e-03  0.0000000000000000e+00  0.0000000000000000e+00  0.0000000000000000e+00  6.7989928706270212e-08  0.0000000000000000e+00  0.0000000000000000e+00  7.3824407433342391e-06  0.0000000000000000e+00  0.0000000000000000e+00  0.0000000000000000e+00  0.0000000000000000e+00  0.0000000000000000e+00  6.7989928706270212e-08  0.0000000000000000e+00  8.3528185180810136e-03  0.0000000000000000e+00  9.0696061788738358e-01  4.1523682868184131e-01  0.0000000000000000e+00  0.0000000000000000e+00  0.0000000000000000e+00  3.6699723279729379e-04  0.0000000000000000e+00  0.0000000000000000e+00  0.0000000000000000e+00  0.0000000000000000e+00  0.0000000000000000e+00  9.0696061788738358e-01  0.0000000000000000e+00  0.0000000000000000e+00  0.0000000000000000e+00  0.0000000000000000e+00  0.0000000000000000e+00  0.0000000000000000e+00  5.7731410631749303e-01  7.2989922911892735e-01  5.2109753271656656e-01  6.4412293731903469e-01  5.8584040603963861e-01  5.6784763750050715e-01  6.8122463759580609e-01  7.0857735009094458e-01  7.4642511497838238e-01  5.4258006575930884e-01  7.7199987930676472e-01  3.0957271198411651e-01  2.5582411423417639e-01  1.4208952511826980e-01  1.0308446273986509e-01  5.1621723310365486e-01  3.9015371399586268e-01  7.4023153552232979e-01  5.2121589257720946e-01  4.3935716248003376e-01  5.7940527848996448e-02  4.0202206508396371e-02  9.8861913947687757e-02  1.3382670540459843e-01  3.2739547673091018e-01  1.4813282596618826e-01  2.7726323938279056e-02  6.5042997493893373e-01  7.3911071715304932e-01  5.0370497530536529e-01  2.8662328737907494e-01  8.6413448953381045e-02  7.4257924923615520e-02  6.0497764491534177e-02  2.4344718017604149e-02  5.1705670533528691e-01  7.1322008552423743e-01  4.4299769565787583e-01  5.5017541967333450e-01  5.8565425201201204e-01  4.3859220775673885e-01  1.8743798224397690e-02  5.7028294869029661e-01  2.8448242292728045e-02  5.7715843648646259e-01  3.8465842202589107e-01  5.2399856280828405e-01  3.2894824407543738e-01  1.3000706518030114e-01  3.7069355310402474e-01  4.6273934384144122e-02  5.1491944124339495e-01  3.8645548709048683e-02  1.2208358050339709e-01  2.6423770504847156e-02  7.4760221923808690e-01  7.7137776016271997e-01  4.8718975162121725e-01  5.4914295060222429e-01  4.3962233110670995e-01  6.7309310769455255e-01  6.9640510091702568e-01  7.4825810336625331e-02  6.2237036307127913e-01  4.9246691084196403e-01  5.7624090307470699e-01  1.6140136736495550e-01  7.4794709900412726e-01  7.3843596366848996e-01  7.1201943029478787e-01  5.8622333460035725e-01  7.0839053418019160e-01  2.8268207178712135e-01  4.8135926875201074e-01  9.5349494448109570e-02  8.6695776750227660e-02  2.8377338578011102e-01  4.8330271541910375e-01  1.7889920271933663e-01  5.0314275470792702e-01  5.7437107616370109e-01  6.3964177165463165e-01  7.1472548398492952e-01  5.0011769506017156e-01  5